# LAMMPS data file
2208 atoms
4 atom types
0.0 33.982 xlo xhi
0.0 33.982 ylo yhi
0.0 33.982 zlo zhi

Masses

1 12.0107  # C
2 1.00794  # H
3 14.0067  # N
4 65.409  # Zn

Atoms  # full

1 1 1 0.0 6.40645655 0.1342289 10.58454345
2 1 1 0.0 6.26135341 15.27728774 11.6813125
3 1 2 0.0 6.4175007 14.5935699 12.2912894
4 1 1 0.0 6.9000451 1.4527305 10.0909549
5 1 3 0.0 6.96172243 16.45272512 11.60111498
6 1 4 0.0 8.4955 0.0 12.74325
7 1 1 0.0 0.1342289 10.58454345 6.40645655
8 1 1 0.0 15.27728774 10.72964659 5.3096875
9 1 2 0.0 14.5935699 10.5734993 4.6997106
10 1 1 0.0 1.4527305 10.0909549 6.9000451
11 1 3 0.0 16.45272512 10.02927757 5.38988502
12 1 4 0.0 0.0 8.4955 4.24775
13 1 1 0.0 10.58454345 16.8567711 10.58454345
14 1 1 0.0 10.72964659 1.71371226 11.6813125
15 1 2 0.0 10.5734993 2.3974301 12.2912894
16 1 1 0.0 10.0909549 15.5382695 10.0909549
17 1 2 0.0 9.1972283 15.6351182 9.7579313
18 1 2 0.0 10.0960522 14.9045052 10.8130724
19 1 2 0.0 10.6635516 15.2256351 9.3875275
20 1 3 0.0 10.02927757 0.53827488 11.60111498
21 1 1 0.0 16.8567711 6.40645655 6.40645655
22 1 1 0.0 1.71371226 6.26135341 5.3096875
23 1 2 0.0 2.3974301 6.4175007 4.6997106
24 1 1 0.0 15.5382695 6.9000451 6.9000451
25 1 2 0.0 15.6351182 7.7937717 7.2330687
26 1 2 0.0 14.9045052 6.8949478 6.1779276
27 1 2 0.0 15.2256351 6.3274484 7.6034725
28 1 3 0.0 0.53827488 6.96172243 5.38988502
29 1 1 0.0 6.40645655 16.8567711 6.40645655
30 1 1 0.0 6.26135341 1.71371226 5.3096875
31 1 2 0.0 6.4175007 2.3974301 4.6997106
32 1 1 0.0 6.9000451 15.5382695 6.9000451
33 1 3 0.0 6.96172243 0.53827488 5.38988502
34 1 4 0.0 8.4955 0.0 4.24775
35 1 1 0.0 16.8567711 10.58454345 10.58454345
36 1 1 0.0 1.71371226 10.72964659 11.6813125
37 1 2 0.0 2.3974301 10.5734993 12.2912894
38 1 1 0.0 15.5382695 10.0909549 10.0909549
39 1 3 0.0 0.53827488 10.02927757 11.60111498
40 1 4 0.0 0.0 8.4955 12.74325
41 1 1 0.0 10.58454345 0.1342289 6.40645655
42 1 1 0.0 10.72964659 15.27728774 5.3096875
43 1 2 0.0 10.5734993 14.5935699 4.6997106
44 1 1 0.0 10.0909549 1.4527305 6.9000451
45 1 2 0.0 9.1972283 1.3558818 7.2330687
46 1 2 0.0 10.0960522 2.0864948 6.1779276
47 1 2 0.0 10.6635516 1.7653649 7.6034725
48 1 3 0.0 10.02927757 16.45272512 5.38988502
49 1 1 0.0 0.1342289 6.40645655 10.58454345
50 1 1 0.0 15.27728774 6.26135341 11.6813125
51 1 2 0.0 14.5935699 6.4175007 12.2912894
52 1 1 0.0 1.4527305 6.9000451 10.0909549
53 1 2 0.0 1.3558818 7.7937717 9.7579313
54 1 2 0.0 2.0864948 6.8949478 10.8130724
55 1 2 0.0 1.7653649 6.3274484 9.3875275
56 1 3 0.0 16.45272512 6.96172243 11.60111498
57 1 1 0.0 10.58454345 6.40645655 0.1342289
58 1 1 0.0 11.6813125 6.26135341 15.27728774
59 1 2 0.0 12.2912894 6.4175007 14.5935699
60 1 1 0.0 10.0909549 6.9000451 1.4527305
61 1 3 0.0 11.60111498 6.96172243 16.45272512
62 1 4 0.0 12.74325 8.4955 0.0
63 1 1 0.0 6.40645655 6.40645655 16.8567711
64 1 1 0.0 6.26135341 5.3096875 1.71371226
65 1 2 0.0 6.4175007 4.6997106 2.3974301
66 1 1 0.0 6.9000451 6.9000451 15.5382695
67 1 2 0.0 7.7937717 7.2330687 15.6351182
68 1 2 0.0 6.8949478 6.1779276 14.9045052
69 1 2 0.0 6.3274484 7.6034725 15.2256351
70 1 3 0.0 6.96172243 5.38988502 0.53827488
71 1 4 0.0 8.4955 4.24775 0.0
72 1 1 0.0 6.40645655 10.58454345 0.1342289
73 1 1 0.0 5.3096875 10.72964659 15.27728774
74 1 2 0.0 4.6997106 10.5734993 14.5935699
75 1 1 0.0 6.9000451 10.0909549 1.4527305
76 1 3 0.0 5.38988502 10.02927757 16.45272512
77 1 4 0.0 4.24775 8.4955 0.0
78 1 1 0.0 10.58454345 10.58454345 16.8567711
79 1 1 0.0 10.72964659 11.6813125 1.71371226
80 1 2 0.0 10.5734993 12.2912894 2.3974301
81 1 1 0.0 10.0909549 10.0909549 15.5382695
82 1 2 0.0 9.1972283 9.7579313 15.6351182
83 1 2 0.0 10.0960522 10.8130724 14.9045052
84 1 2 0.0 10.6635516 9.3875275 15.2256351
85 1 3 0.0 10.02927757 11.60111498 0.53827488
86 1 4 0.0 8.4955 12.74325 0.0
87 1 1 0.0 11.6813125 10.72964659 1.71371226
88 1 2 0.0 12.2912894 10.5734993 2.3974301
89 1 3 0.0 11.60111498 10.02927757 0.53827488
90 1 1 0.0 10.72964659 5.3096875 15.27728774
91 1 2 0.0 10.5734993 4.6997106 14.5935699
92 1 2 0.0 9.1972283 7.2330687 1.3558818
93 1 2 0.0 10.0960522 6.1779276 2.0864948
94 1 2 0.0 10.6635516 7.6034725 1.7653649
95 1 3 0.0 10.02927757 5.38988502 16.45272512
96 1 1 0.0 5.3096875 6.26135341 1.71371226
97 1 2 0.0 4.6997106 6.4175007 2.3974301
98 1 3 0.0 5.38988502 6.96172243 0.53827488
99 1 1 0.0 6.26135341 11.6813125 15.27728774
100 1 2 0.0 6.4175007 12.2912894 14.5935699
101 1 2 0.0 7.7937717 9.7579313 1.3558818
102 1 2 0.0 6.8949478 10.8130724 2.0864948
103 1 2 0.0 6.3274484 9.3875275 1.7653649
104 1 3 0.0 6.96172243 11.60111498 16.45272512
105 1 1 0.0 15.27728774 11.6813125 6.26135341
106 1 2 0.0 14.5935699 12.2912894 6.4175007
107 1 2 0.0 1.3558818 9.7579313 7.7937717
108 1 2 0.0 2.0864948 10.8130724 6.8949478
109 1 2 0.0 1.7653649 9.3875275 6.3274484
110 1 3 0.0 16.45272512 11.60111498 6.96172243
111 1 4 0.0 0.0 12.74325 8.4955
112 1 1 0.0 15.27728774 5.3096875 10.72964659
113 1 2 0.0 14.5935699 4.6997106 10.5734993
114 1 3 0.0 16.45272512 5.38988502 10.02927757
115 1 4 0.0 0.0 4.24775 8.4955
116 1 1 0.0 5.3096875 1.71371226 6.26135341
117 1 2 0.0 4.6997106 2.3974301 6.4175007
118 1 2 0.0 7.2330687 15.6351182 7.7937717
119 1 2 0.0 6.1779276 14.9045052 6.8949478
120 1 2 0.0 7.6034725 15.2256351 6.3274484
121 1 3 0.0 5.38988502 0.53827488 6.96172243
122 1 4 0.0 4.24775 0.0 8.4955
123 1 1 0.0 1.71371226 11.6813125 10.72964659
124 1 2 0.0 2.3974301 12.2912894 10.5734993
125 1 2 0.0 15.6351182 9.7579313 9.1972283
126 1 2 0.0 14.9045052 10.8130724 10.0960522
127 1 2 0.0 15.2256351 9.3875275 10.6635516
128 1 3 0.0 0.53827488 11.60111498 10.02927757
129 1 1 0.0 11.6813125 15.27728774 6.26135341
130 1 2 0.0 12.2912894 14.5935699 6.4175007
131 1 3 0.0 11.60111498 16.45272512 6.96172243
132 1 4 0.0 12.74325 0.0 8.4955
133 1 1 0.0 1.71371226 5.3096875 6.26135341
134 1 2 0.0 2.3974301 4.6997106 6.4175007
135 1 3 0.0 0.53827488 5.38988502 6.96172243
136 1 1 0.0 5.3096875 15.27728774 10.72964659
137 1 2 0.0 4.6997106 14.5935699 10.5734993
138 1 2 0.0 7.2330687 1.3558818 9.1972283
139 1 2 0.0 6.1779276 2.0864948 10.0960522
140 1 2 0.0 7.6034725 1.7653649 10.6635516
141 1 3 0.0 5.38988502 16.45272512 10.02927757
142 1 1 0.0 11.6813125 1.71371226 10.72964659
143 1 2 0.0 12.2912894 2.3974301 10.5734993
144 1 3 0.0 11.60111498 0.53827488 10.02927757
145 1 1 0.0 14.90195655 8.6297289 2.08904345
146 1 1 0.0 14.75685341 6.78178774 3.1858125
147 1 2 0.0 14.9130007 6.0980699 3.7957894
148 1 1 0.0 15.3955451 9.9482305 1.5954549
149 1 2 0.0 16.2892717 9.8513818 1.2624313
150 1 2 0.0 15.3904478 10.5819948 2.3175724
151 1 2 0.0 14.8229484 10.2608649 0.8920275
152 1 3 0.0 15.45722243 7.95722512 3.10561498
153 1 1 0.0 8.6297289 2.08904345 14.90195655
154 1 1 0.0 6.78178774 2.23414659 13.8051875
155 1 2 0.0 6.0980699 2.0779993 13.1952106
156 1 1 0.0 9.9482305 1.5954549 15.3955451
157 1 3 0.0 7.95722512 1.53377757 13.88538502
158 1 1 0.0 2.08904345 8.3612711 2.08904345
159 1 1 0.0 2.23414659 10.20921226 3.1858125
160 1 2 0.0 2.0779993 10.8929301 3.7957894
161 1 1 0.0 1.5954549 7.0427695 1.5954549
162 1 2 0.0 0.7017283 7.1396182 1.2624313
163 1 2 0.0 1.6005522 6.4090052 2.3175724
164 1 2 0.0 2.1680516 6.7301351 0.8920275
165 1 3 0.0 1.53377757 9.03377488 3.10561498
166 1 1 0.0 8.3612711 14.90195655 14.90195655
167 1 1 0.0 10.20921226 14.75685341 13.8051875
168 1 2 0.0 10.8929301 14.9130007 13.1952106
169 1 1 0.0 7.0427695 15.3955451 15.3955451
170 1 2 0.0 7.1396182 16.2892717 15.7285687
171 1 2 0.0 6.4090052 15.3904478 14.6734276
172 1 2 0.0 6.7301351 14.8229484 16.0989725
173 1 3 0.0 9.03377488 15.45722243 13.88538502
174 1 1 0.0 14.90195655 8.3612711 14.90195655
175 1 1 0.0 14.75685341 10.20921226 13.8051875
176 1 2 0.0 14.9130007 10.8929301 13.1952106
177 1 1 0.0 15.3955451 7.0427695 15.3955451
178 1 2 0.0 16.2892717 7.1396182 15.7285687
179 1 2 0.0 15.3904478 6.4090052 14.6734276
180 1 2 0.0 14.8229484 6.7301351 16.0989725
181 1 3 0.0 15.45722243 9.03377488 13.88538502
182 1 1 0.0 8.3612711 2.08904345 2.08904345
183 1 1 0.0 10.20921226 2.23414659 3.1858125
184 1 2 0.0 10.8929301 2.0779993 3.7957894
185 1 1 0.0 7.0427695 1.5954549 1.5954549
186 1 3 0.0 9.03377488 1.53377757 3.10561498
187 1 1 0.0 2.08904345 8.6297289 14.90195655
188 1 1 0.0 2.23414659 6.78178774 13.8051875
189 1 2 0.0 2.0779993 6.0980699 13.1952106
190 1 1 0.0 1.5954549 9.9482305 15.3955451
191 1 3 0.0 1.53377757 7.95722512 13.88538502
192 1 1 0.0 8.6297289 14.90195655 2.08904345
193 1 1 0.0 6.78178774 14.75685341 3.1858125
194 1 2 0.0 6.0980699 14.9130007 3.7957894
195 1 1 0.0 9.9482305 15.3955451 1.5954549
196 1 3 0.0 7.95722512 15.45722243 3.10561498
197 1 1 0.0 2.08904345 14.90195655 8.6297289
198 1 1 0.0 3.1858125 14.75685341 6.78178774
199 1 2 0.0 3.7957894 14.9130007 6.0980699
200 1 1 0.0 1.5954549 15.3955451 9.9482305
201 1 3 0.0 3.10561498 15.45722243 7.95722512
202 1 1 0.0 14.90195655 14.90195655 8.3612711
203 1 1 0.0 14.75685341 13.8051875 10.20921226
204 1 2 0.0 14.9130007 13.1952106 10.8929301
205 1 1 0.0 15.3955451 15.3955451 7.0427695
206 1 2 0.0 16.2892717 15.7285687 7.1396182
207 1 2 0.0 15.3904478 14.6734276 6.4090052
208 1 2 0.0 14.8229484 16.0989725 6.7301351
209 1 3 0.0 15.45722243 13.88538502 9.03377488
210 1 1 0.0 14.90195655 2.08904345 8.6297289
211 1 1 0.0 13.8051875 2.23414659 6.78178774
212 1 2 0.0 13.1952106 2.0779993 6.0980699
213 1 1 0.0 15.3955451 1.5954549 9.9482305
214 1 3 0.0 13.88538502 1.53377757 7.95722512
215 1 1 0.0 2.08904345 2.08904345 8.3612711
216 1 1 0.0 2.23414659 3.1858125 10.20921226
217 1 2 0.0 2.0779993 3.7957894 10.8929301
218 1 1 0.0 1.5954549 1.5954549 7.0427695
219 1 2 0.0 0.7017283 1.2624313 7.1396182
220 1 2 0.0 1.6005522 2.3175724 6.4090052
221 1 2 0.0 2.1680516 0.8920275 6.7301351
222 1 3 0.0 1.53377757 3.10561498 9.03377488
223 1 1 0.0 3.1858125 2.23414659 10.20921226
224 1 2 0.0 3.7957894 2.0779993 10.8929301
225 1 3 0.0 3.10561498 1.53377757 9.03377488
226 1 1 0.0 2.23414659 13.8051875 6.78178774
227 1 2 0.0 2.0779993 13.1952106 6.0980699
228 1 2 0.0 0.7017283 15.7285687 9.8513818
229 1 2 0.0 1.6005522 14.6734276 10.5819948
230 1 2 0.0 2.1680516 16.0989725 10.2608649
231 1 3 0.0 1.53377757 13.88538502 7.95722512
232 1 1 0.0 13.8051875 14.75685341 10.20921226
233 1 2 0.0 13.1952106 14.9130007 10.8929301
234 1 3 0.0 13.88538502 15.45722243 9.03377488
235 1 1 0.0 14.75685341 3.1858125 6.78178774
236 1 2 0.0 14.9130007 3.7957894 6.0980699
237 1 2 0.0 16.2892717 1.2624313 9.8513818
238 1 2 0.0 15.3904478 2.3175724 10.5819948
239 1 2 0.0 14.8229484 0.8920275 10.2608649
240 1 3 0.0 15.45722243 3.10561498 7.95722512
241 1 1 0.0 6.78178774 3.1858125 14.75685341
242 1 2 0.0 6.0980699 3.7957894 14.9130007
243 1 2 0.0 9.8513818 1.2624313 16.2892717
244 1 2 0.0 10.5819948 2.3175724 15.3904478
245 1 2 0.0 10.2608649 0.8920275 14.8229484
246 1 3 0.0 7.95722512 3.10561498 15.45722243
247 1 1 0.0 6.78178774 13.8051875 2.23414659
248 1 2 0.0 6.0980699 13.1952106 2.0779993
249 1 2 0.0 9.8513818 15.7285687 0.7017283
250 1 2 0.0 10.5819948 14.6734276 1.6005522
251 1 2 0.0 10.2608649 16.0989725 2.1680516
252 1 3 0.0 7.95722512 13.88538502 1.53377757
253 1 1 0.0 13.8051875 10.20921226 14.75685341
254 1 2 0.0 13.1952106 10.8929301 14.9130007
255 1 3 0.0 13.88538502 9.03377488 15.45722243
256 1 1 0.0 10.20921226 3.1858125 2.23414659
257 1 2 0.0 10.8929301 3.7957894 2.0779993
258 1 2 0.0 7.1396182 1.2624313 0.7017283
259 1 2 0.0 6.4090052 2.3175724 1.6005522
260 1 2 0.0 6.7301351 0.8920275 2.1680516
261 1 3 0.0 9.03377488 3.10561498 1.53377757
262 1 1 0.0 3.1858125 6.78178774 14.75685341
263 1 2 0.0 3.7957894 6.0980699 14.9130007
264 1 2 0.0 1.2624313 9.8513818 16.2892717
265 1 2 0.0 2.3175724 10.5819948 15.3904478
266 1 2 0.0 0.8920275 10.2608649 14.8229484
267 1 3 0.0 3.10561498 7.95722512 15.45722243
268 1 1 0.0 10.20921226 13.8051875 14.75685341
269 1 2 0.0 10.8929301 13.1952106 14.9130007
270 1 3 0.0 9.03377488 13.88538502 15.45722243
271 1 1 0.0 13.8051875 6.78178774 2.23414659
272 1 2 0.0 13.1952106 6.0980699 2.0779993
273 1 3 0.0 13.88538502 7.95722512 1.53377757
274 1 1 0.0 3.1858125 10.20921226 2.23414659
275 1 2 0.0 3.7957894 10.8929301 2.0779993
276 1 3 0.0 3.10561498 9.03377488 1.53377757
277 1 1 0.0 6.40645655 0.1342289 27.57554345
278 1 1 0.0 6.26135341 15.27728774 28.6723125
279 1 2 0.0 6.4175007 14.5935699 29.2822894
280 1 1 0.0 6.9000451 1.4527305 27.0819549
281 1 3 0.0 6.96172243 16.45272512 28.59211498
282 1 4 0.0 8.4955 0.0 29.73425
283 1 1 0.0 0.1342289 10.58454345 23.39745655
284 1 1 0.0 15.27728774 10.72964659 22.3006875
285 1 2 0.0 14.5935699 10.5734993 21.6907106
286 1 1 0.0 1.4527305 10.0909549 23.8910451
287 1 3 0.0 16.45272512 10.02927757 22.38088502
288 1 4 0.0 0.0 8.4955 21.23875
289 1 1 0.0 10.58454345 16.8567711 27.57554345
290 1 1 0.0 10.72964659 1.71371226 28.6723125
291 1 2 0.0 10.5734993 2.3974301 29.2822894
292 1 1 0.0 10.0909549 15.5382695 27.0819549
293 1 2 0.0 9.1972283 15.6351182 26.7489313
294 1 2 0.0 10.0960522 14.9045052 27.8040724
295 1 2 0.0 10.6635516 15.2256351 26.3785275
296 1 3 0.0 10.02927757 0.53827488 28.59211498
297 1 1 0.0 16.8567711 6.40645655 23.39745655
298 1 1 0.0 1.71371226 6.26135341 22.3006875
299 1 2 0.0 2.3974301 6.4175007 21.6907106
300 1 1 0.0 15.5382695 6.9000451 23.8910451
301 1 2 0.0 15.6351182 7.7937717 24.2240687
302 1 2 0.0 14.9045052 6.8949478 23.1689276
303 1 2 0.0 15.2256351 6.3274484 24.5944725
304 1 3 0.0 0.53827488 6.96172243 22.38088502
305 1 1 0.0 6.40645655 16.8567711 23.39745655
306 1 1 0.0 6.26135341 1.71371226 22.3006875
307 1 2 0.0 6.4175007 2.3974301 21.6907106
308 1 1 0.0 6.9000451 15.5382695 23.8910451
309 1 3 0.0 6.96172243 0.53827488 22.38088502
310 1 4 0.0 8.4955 0.0 21.23875
311 1 1 0.0 16.8567711 10.58454345 27.57554345
312 1 1 0.0 1.71371226 10.72964659 28.6723125
313 1 2 0.0 2.3974301 10.5734993 29.2822894
314 1 1 0.0 15.5382695 10.0909549 27.0819549
315 1 3 0.0 0.53827488 10.02927757 28.59211498
316 1 4 0.0 0.0 8.4955 29.73425
317 1 1 0.0 10.58454345 0.1342289 23.39745655
318 1 1 0.0 10.72964659 15.27728774 22.3006875
319 1 2 0.0 10.5734993 14.5935699 21.6907106
320 1 1 0.0 10.0909549 1.4527305 23.8910451
321 1 2 0.0 9.1972283 1.3558818 24.2240687
322 1 2 0.0 10.0960522 2.0864948 23.1689276
323 1 2 0.0 10.6635516 1.7653649 24.5944725
324 1 3 0.0 10.02927757 16.45272512 22.38088502
325 1 1 0.0 0.1342289 6.40645655 27.57554345
326 1 1 0.0 15.27728774 6.26135341 28.6723125
327 1 2 0.0 14.5935699 6.4175007 29.2822894
328 1 1 0.0 1.4527305 6.9000451 27.0819549
329 1 2 0.0 1.3558818 7.7937717 26.7489313
330 1 2 0.0 2.0864948 6.8949478 27.8040724
331 1 2 0.0 1.7653649 6.3274484 26.3785275
332 1 3 0.0 16.45272512 6.96172243 28.59211498
333 1 1 0.0 10.58454345 6.40645655 17.1252289
334 1 1 0.0 11.6813125 6.26135341 32.26828774
335 1 2 0.0 12.2912894 6.4175007 31.5845699
336 1 1 0.0 10.0909549 6.9000451 18.4437305
337 1 3 0.0 11.60111498 6.96172243 33.44372512
338 1 4 0.0 12.74325 8.4955 16.991
339 1 1 0.0 6.40645655 6.40645655 33.8477711
340 1 1 0.0 6.26135341 5.3096875 18.70471226
341 1 2 0.0 6.4175007 4.6997106 19.3884301
342 1 1 0.0 6.9000451 6.9000451 32.5292695
343 1 2 0.0 7.7937717 7.2330687 32.6261182
344 1 2 0.0 6.8949478 6.1779276 31.8955052
345 1 2 0.0 6.3274484 7.6034725 32.2166351
346 1 3 0.0 6.96172243 5.38988502 17.52927488
347 1 4 0.0 8.4955 4.24775 16.991
348 1 1 0.0 6.40645655 10.58454345 17.1252289
349 1 1 0.0 5.3096875 10.72964659 32.26828774
350 1 2 0.0 4.6997106 10.5734993 31.5845699
351 1 1 0.0 6.9000451 10.0909549 18.4437305
352 1 3 0.0 5.38988502 10.02927757 33.44372512
353 1 4 0.0 4.24775 8.4955 16.991
354 1 1 0.0 10.58454345 10.58454345 33.8477711
355 1 1 0.0 10.72964659 11.6813125 18.70471226
356 1 2 0.0 10.5734993 12.2912894 19.3884301
357 1 1 0.0 10.0909549 10.0909549 32.5292695
358 1 2 0.0 9.1972283 9.7579313 32.6261182
359 1 2 0.0 10.0960522 10.8130724 31.8955052
360 1 2 0.0 10.6635516 9.3875275 32.2166351
361 1 3 0.0 10.02927757 11.60111498 17.52927488
362 1 4 0.0 8.4955 12.74325 16.991
363 1 1 0.0 11.6813125 10.72964659 18.70471226
364 1 2 0.0 12.2912894 10.5734993 19.3884301
365 1 3 0.0 11.60111498 10.02927757 17.52927488
366 1 1 0.0 10.72964659 5.3096875 32.26828774
367 1 2 0.0 10.5734993 4.6997106 31.5845699
368 1 2 0.0 9.1972283 7.2330687 18.3468818
369 1 2 0.0 10.0960522 6.1779276 19.0774948
370 1 2 0.0 10.6635516 7.6034725 18.7563649
371 1 3 0.0 10.02927757 5.38988502 33.44372512
372 1 1 0.0 5.3096875 6.26135341 18.70471226
373 1 2 0.0 4.6997106 6.4175007 19.3884301
374 1 3 0.0 5.38988502 6.96172243 17.52927488
375 1 1 0.0 6.26135341 11.6813125 32.26828774
376 1 2 0.0 6.4175007 12.2912894 31.5845699
377 1 2 0.0 7.7937717 9.7579313 18.3468818
378 1 2 0.0 6.8949478 10.8130724 19.0774948
379 1 2 0.0 6.3274484 9.3875275 18.7563649
380 1 3 0.0 6.96172243 11.60111498 33.44372512
381 1 1 0.0 15.27728774 11.6813125 23.25235341
382 1 2 0.0 14.5935699 12.2912894 23.4085007
383 1 2 0.0 1.3558818 9.7579313 24.7847717
384 1 2 0.0 2.0864948 10.8130724 23.8859478
385 1 2 0.0 1.7653649 9.3875275 23.3184484
386 1 3 0.0 16.45272512 11.60111498 23.95272243
387 1 4 0.0 0.0 12.74325 25.4865
388 1 1 0.0 15.27728774 5.3096875 27.72064659
389 1 2 0.0 14.5935699 4.6997106 27.5644993
390 1 3 0.0 16.45272512 5.38988502 27.02027757
391 1 4 0.0 0.0 4.24775 25.4865
392 1 1 0.0 5.3096875 1.71371226 23.25235341
393 1 2 0.0 4.6997106 2.3974301 23.4085007
394 1 2 0.0 7.2330687 15.6351182 24.7847717
395 1 2 0.0 6.1779276 14.9045052 23.8859478
396 1 2 0.0 7.6034725 15.2256351 23.3184484
397 1 3 0.0 5.38988502 0.53827488 23.95272243
398 1 4 0.0 4.24775 0.0 25.4865
399 1 1 0.0 1.71371226 11.6813125 27.72064659
400 1 2 0.0 2.3974301 12.2912894 27.5644993
401 1 2 0.0 15.6351182 9.7579313 26.1882283
402 1 2 0.0 14.9045052 10.8130724 27.0870522
403 1 2 0.0 15.2256351 9.3875275 27.6545516
404 1 3 0.0 0.53827488 11.60111498 27.02027757
405 1 1 0.0 11.6813125 15.27728774 23.25235341
406 1 2 0.0 12.2912894 14.5935699 23.4085007
407 1 3 0.0 11.60111498 16.45272512 23.95272243
408 1 4 0.0 12.74325 0.0 25.4865
409 1 1 0.0 1.71371226 5.3096875 23.25235341
410 1 2 0.0 2.3974301 4.6997106 23.4085007
411 1 3 0.0 0.53827488 5.38988502 23.95272243
412 1 1 0.0 5.3096875 15.27728774 27.72064659
413 1 2 0.0 4.6997106 14.5935699 27.5644993
414 1 2 0.0 7.2330687 1.3558818 26.1882283
415 1 2 0.0 6.1779276 2.0864948 27.0870522
416 1 2 0.0 7.6034725 1.7653649 27.6545516
417 1 3 0.0 5.38988502 16.45272512 27.02027757
418 1 1 0.0 11.6813125 1.71371226 27.72064659
419 1 2 0.0 12.2912894 2.3974301 27.5644993
420 1 3 0.0 11.60111498 0.53827488 27.02027757
421 1 1 0.0 14.90195655 8.6297289 19.08004345
422 1 1 0.0 14.75685341 6.78178774 20.1768125
423 1 2 0.0 14.9130007 6.0980699 20.7867894
424 1 1 0.0 15.3955451 9.9482305 18.5864549
425 1 2 0.0 16.2892717 9.8513818 18.2534313
426 1 2 0.0 15.3904478 10.5819948 19.3085724
427 1 2 0.0 14.8229484 10.2608649 17.8830275
428 1 3 0.0 15.45722243 7.95722512 20.09661498
429 1 1 0.0 8.6297289 2.08904345 31.89295655
430 1 1 0.0 6.78178774 2.23414659 30.7961875
431 1 2 0.0 6.0980699 2.0779993 30.1862106
432 1 1 0.0 9.9482305 1.5954549 32.3865451
433 1 3 0.0 7.95722512 1.53377757 30.87638502
434 1 1 0.0 2.08904345 8.3612711 19.08004345
435 1 1 0.0 2.23414659 10.20921226 20.1768125
436 1 2 0.0 2.0779993 10.8929301 20.7867894
437 1 1 0.0 1.5954549 7.0427695 18.5864549
438 1 2 0.0 0.7017283 7.1396182 18.2534313
439 1 2 0.0 1.6005522 6.4090052 19.3085724
440 1 2 0.0 2.1680516 6.7301351 17.8830275
441 1 3 0.0 1.53377757 9.03377488 20.09661498
442 1 1 0.0 8.3612711 14.90195655 31.89295655
443 1 1 0.0 10.20921226 14.75685341 30.7961875
444 1 2 0.0 10.8929301 14.9130007 30.1862106
445 1 1 0.0 7.0427695 15.3955451 32.3865451
446 1 2 0.0 7.1396182 16.2892717 32.7195687
447 1 2 0.0 6.4090052 15.3904478 31.6644276
448 1 2 0.0 6.7301351 14.8229484 33.0899725
449 1 3 0.0 9.03377488 15.45722243 30.87638502
450 1 1 0.0 14.90195655 8.3612711 31.89295655
451 1 1 0.0 14.75685341 10.20921226 30.7961875
452 1 2 0.0 14.9130007 10.8929301 30.1862106
453 1 1 0.0 15.3955451 7.0427695 32.3865451
454 1 2 0.0 16.2892717 7.1396182 32.7195687
455 1 2 0.0 15.3904478 6.4090052 31.6644276
456 1 2 0.0 14.8229484 6.7301351 33.0899725
457 1 3 0.0 15.45722243 9.03377488 30.87638502
458 1 1 0.0 8.3612711 2.08904345 19.08004345
459 1 1 0.0 10.20921226 2.23414659 20.1768125
460 1 2 0.0 10.8929301 2.0779993 20.7867894
461 1 1 0.0 7.0427695 1.5954549 18.5864549
462 1 3 0.0 9.03377488 1.53377757 20.09661498
463 1 1 0.0 2.08904345 8.6297289 31.89295655
464 1 1 0.0 2.23414659 6.78178774 30.7961875
465 1 2 0.0 2.0779993 6.0980699 30.1862106
466 1 1 0.0 1.5954549 9.9482305 32.3865451
467 1 3 0.0 1.53377757 7.95722512 30.87638502
468 1 1 0.0 8.6297289 14.90195655 19.08004345
469 1 1 0.0 6.78178774 14.75685341 20.1768125
470 1 2 0.0 6.0980699 14.9130007 20.7867894
471 1 1 0.0 9.9482305 15.3955451 18.5864549
472 1 3 0.0 7.95722512 15.45722243 20.09661498
473 1 1 0.0 2.08904345 14.90195655 25.6207289
474 1 1 0.0 3.1858125 14.75685341 23.77278774
475 1 2 0.0 3.7957894 14.9130007 23.0890699
476 1 1 0.0 1.5954549 15.3955451 26.9392305
477 1 3 0.0 3.10561498 15.45722243 24.94822512
478 1 1 0.0 14.90195655 14.90195655 25.3522711
479 1 1 0.0 14.75685341 13.8051875 27.20021226
480 1 2 0.0 14.9130007 13.1952106 27.8839301
481 1 1 0.0 15.3955451 15.3955451 24.0337695
482 1 2 0.0 16.2892717 15.7285687 24.1306182
483 1 2 0.0 15.3904478 14.6734276 23.4000052
484 1 2 0.0 14.8229484 16.0989725 23.7211351
485 1 3 0.0 15.45722243 13.88538502 26.02477488
486 1 1 0.0 14.90195655 2.08904345 25.6207289
487 1 1 0.0 13.8051875 2.23414659 23.77278774
488 1 2 0.0 13.1952106 2.0779993 23.0890699
489 1 1 0.0 15.3955451 1.5954549 26.9392305
490 1 3 0.0 13.88538502 1.53377757 24.94822512
491 1 1 0.0 2.08904345 2.08904345 25.3522711
492 1 1 0.0 2.23414659 3.1858125 27.20021226
493 1 2 0.0 2.0779993 3.7957894 27.8839301
494 1 1 0.0 1.5954549 1.5954549 24.0337695
495 1 2 0.0 0.7017283 1.2624313 24.1306182
496 1 2 0.0 1.6005522 2.3175724 23.4000052
497 1 2 0.0 2.1680516 0.8920275 23.7211351
498 1 3 0.0 1.53377757 3.10561498 26.02477488
499 1 1 0.0 3.1858125 2.23414659 27.20021226
500 1 2 0.0 3.7957894 2.0779993 27.8839301
501 1 3 0.0 3.10561498 1.53377757 26.02477488
502 1 1 0.0 2.23414659 13.8051875 23.77278774
503 1 2 0.0 2.0779993 13.1952106 23.0890699
504 1 2 0.0 0.7017283 15.7285687 26.8423818
505 1 2 0.0 1.6005522 14.6734276 27.5729948
506 1 2 0.0 2.1680516 16.0989725 27.2518649
507 1 3 0.0 1.53377757 13.88538502 24.94822512
508 1 1 0.0 13.8051875 14.75685341 27.20021226
509 1 2 0.0 13.1952106 14.9130007 27.8839301
510 1 3 0.0 13.88538502 15.45722243 26.02477488
511 1 1 0.0 14.75685341 3.1858125 23.77278774
512 1 2 0.0 14.9130007 3.7957894 23.0890699
513 1 2 0.0 16.2892717 1.2624313 26.8423818
514 1 2 0.0 15.3904478 2.3175724 27.5729948
515 1 2 0.0 14.8229484 0.8920275 27.2518649
516 1 3 0.0 15.45722243 3.10561498 24.94822512
517 1 1 0.0 6.78178774 3.1858125 31.74785341
518 1 2 0.0 6.0980699 3.7957894 31.9040007
519 1 2 0.0 9.8513818 1.2624313 33.2802717
520 1 2 0.0 10.5819948 2.3175724 32.3814478
521 1 2 0.0 10.2608649 0.8920275 31.8139484
522 1 3 0.0 7.95722512 3.10561498 32.44822243
523 1 1 0.0 6.78178774 13.8051875 19.22514659
524 1 2 0.0 6.0980699 13.1952106 19.0689993
525 1 2 0.0 9.8513818 15.7285687 17.6927283
526 1 2 0.0 10.5819948 14.6734276 18.5915522
527 1 2 0.0 10.2608649 16.0989725 19.1590516
528 1 3 0.0 7.95722512 13.88538502 18.52477757
529 1 1 0.0 13.8051875 10.20921226 31.74785341
530 1 2 0.0 13.1952106 10.8929301 31.9040007
531 1 3 0.0 13.88538502 9.03377488 32.44822243
532 1 1 0.0 10.20921226 3.1858125 19.22514659
533 1 2 0.0 10.8929301 3.7957894 19.0689993
534 1 2 0.0 7.1396182 1.2624313 17.6927283
535 1 2 0.0 6.4090052 2.3175724 18.5915522
536 1 2 0.0 6.7301351 0.8920275 19.1590516
537 1 3 0.0 9.03377488 3.10561498 18.52477757
538 1 1 0.0 3.1858125 6.78178774 31.74785341
539 1 2 0.0 3.7957894 6.0980699 31.9040007
540 1 2 0.0 1.2624313 9.8513818 33.2802717
541 1 2 0.0 2.3175724 10.5819948 32.3814478
542 1 2 0.0 0.8920275 10.2608649 31.8139484
543 1 3 0.0 3.10561498 7.95722512 32.44822243
544 1 1 0.0 10.20921226 13.8051875 31.74785341
545 1 2 0.0 10.8929301 13.1952106 31.9040007
546 1 3 0.0 9.03377488 13.88538502 32.44822243
547 1 1 0.0 13.8051875 6.78178774 19.22514659
548 1 2 0.0 13.1952106 6.0980699 19.0689993
549 1 3 0.0 13.88538502 7.95722512 18.52477757
550 1 1 0.0 3.1858125 10.20921226 19.22514659
551 1 2 0.0 3.7957894 10.8929301 19.0689993
552 1 3 0.0 3.10561498 9.03377488 18.52477757
553 1 1 0.0 6.40645655 17.1252289 10.58454345
554 1 1 0.0 6.26135341 32.26828774 11.6813125
555 1 2 0.0 6.4175007 31.5845699 12.2912894
556 1 1 0.0 6.9000451 18.4437305 10.0909549
557 1 3 0.0 6.96172243 33.44372512 11.60111498
558 1 4 0.0 8.4955 16.991 12.74325
559 1 1 0.0 0.1342289 27.57554345 6.40645655
560 1 1 0.0 15.27728774 27.72064659 5.3096875
561 1 2 0.0 14.5935699 27.5644993 4.6997106
562 1 1 0.0 1.4527305 27.0819549 6.9000451
563 1 3 0.0 16.45272512 27.02027757 5.38988502
564 1 4 0.0 0.0 25.4865 4.24775
565 1 1 0.0 10.58454345 33.8477711 10.58454345
566 1 1 0.0 10.72964659 18.70471226 11.6813125
567 1 2 0.0 10.5734993 19.3884301 12.2912894
568 1 1 0.0 10.0909549 32.5292695 10.0909549
569 1 2 0.0 9.1972283 32.6261182 9.7579313
570 1 2 0.0 10.0960522 31.8955052 10.8130724
571 1 2 0.0 10.6635516 32.2166351 9.3875275
572 1 3 0.0 10.02927757 17.52927488 11.60111498
573 1 1 0.0 16.8567711 23.39745655 6.40645655
574 1 1 0.0 1.71371226 23.25235341 5.3096875
575 1 2 0.0 2.3974301 23.4085007 4.6997106
576 1 1 0.0 15.5382695 23.8910451 6.9000451
577 1 2 0.0 15.6351182 24.7847717 7.2330687
578 1 2 0.0 14.9045052 23.8859478 6.1779276
579 1 2 0.0 15.2256351 23.3184484 7.6034725
580 1 3 0.0 0.53827488 23.95272243 5.38988502
581 1 1 0.0 6.40645655 33.8477711 6.40645655
582 1 1 0.0 6.26135341 18.70471226 5.3096875
583 1 2 0.0 6.4175007 19.3884301 4.6997106
584 1 1 0.0 6.9000451 32.5292695 6.9000451
585 1 3 0.0 6.96172243 17.52927488 5.38988502
586 1 4 0.0 8.4955 16.991 4.24775
587 1 1 0.0 16.8567711 27.57554345 10.58454345
588 1 1 0.0 1.71371226 27.72064659 11.6813125
589 1 2 0.0 2.3974301 27.5644993 12.2912894
590 1 1 0.0 15.5382695 27.0819549 10.0909549
591 1 3 0.0 0.53827488 27.02027757 11.60111498
592 1 4 0.0 0.0 25.4865 12.74325
593 1 1 0.0 10.58454345 17.1252289 6.40645655
594 1 1 0.0 10.72964659 32.26828774 5.3096875
595 1 2 0.0 10.5734993 31.5845699 4.6997106
596 1 1 0.0 10.0909549 18.4437305 6.9000451
597 1 2 0.0 9.1972283 18.3468818 7.2330687
598 1 2 0.0 10.0960522 19.0774948 6.1779276
599 1 2 0.0 10.6635516 18.7563649 7.6034725
600 1 3 0.0 10.02927757 33.44372512 5.38988502
601 1 1 0.0 0.1342289 23.39745655 10.58454345
602 1 1 0.0 15.27728774 23.25235341 11.6813125
603 1 2 0.0 14.5935699 23.4085007 12.2912894
604 1 1 0.0 1.4527305 23.8910451 10.0909549
605 1 2 0.0 1.3558818 24.7847717 9.7579313
606 1 2 0.0 2.0864948 23.8859478 10.8130724
607 1 2 0.0 1.7653649 23.3184484 9.3875275
608 1 3 0.0 16.45272512 23.95272243 11.60111498
609 1 1 0.0 10.58454345 23.39745655 0.1342289
610 1 1 0.0 11.6813125 23.25235341 15.27728774
611 1 2 0.0 12.2912894 23.4085007 14.5935699
612 1 1 0.0 10.0909549 23.8910451 1.4527305
613 1 3 0.0 11.60111498 23.95272243 16.45272512
614 1 4 0.0 12.74325 25.4865 0.0
615 1 1 0.0 6.40645655 23.39745655 16.8567711
616 1 1 0.0 6.26135341 22.3006875 1.71371226
617 1 2 0.0 6.4175007 21.6907106 2.3974301
618 1 1 0.0 6.9000451 23.8910451 15.5382695
619 1 2 0.0 7.7937717 24.2240687 15.6351182
620 1 2 0.0 6.8949478 23.1689276 14.9045052
621 1 2 0.0 6.3274484 24.5944725 15.2256351
622 1 3 0.0 6.96172243 22.38088502 0.53827488
623 1 4 0.0 8.4955 21.23875 0.0
624 1 1 0.0 6.40645655 27.57554345 0.1342289
625 1 1 0.0 5.3096875 27.72064659 15.27728774
626 1 2 0.0 4.6997106 27.5644993 14.5935699
627 1 1 0.0 6.9000451 27.0819549 1.4527305
628 1 3 0.0 5.38988502 27.02027757 16.45272512
629 1 4 0.0 4.24775 25.4865 0.0
630 1 1 0.0 10.58454345 27.57554345 16.8567711
631 1 1 0.0 10.72964659 28.6723125 1.71371226
632 1 2 0.0 10.5734993 29.2822894 2.3974301
633 1 1 0.0 10.0909549 27.0819549 15.5382695
634 1 2 0.0 9.1972283 26.7489313 15.6351182
635 1 2 0.0 10.0960522 27.8040724 14.9045052
636 1 2 0.0 10.6635516 26.3785275 15.2256351
637 1 3 0.0 10.02927757 28.59211498 0.53827488
638 1 4 0.0 8.4955 29.73425 0.0
639 1 1 0.0 11.6813125 27.72064659 1.71371226
640 1 2 0.0 12.2912894 27.5644993 2.3974301
641 1 3 0.0 11.60111498 27.02027757 0.53827488
642 1 1 0.0 10.72964659 22.3006875 15.27728774
643 1 2 0.0 10.5734993 21.6907106 14.5935699
644 1 2 0.0 9.1972283 24.2240687 1.3558818
645 1 2 0.0 10.0960522 23.1689276 2.0864948
646 1 2 0.0 10.6635516 24.5944725 1.7653649
647 1 3 0.0 10.02927757 22.38088502 16.45272512
648 1 1 0.0 5.3096875 23.25235341 1.71371226
649 1 2 0.0 4.6997106 23.4085007 2.3974301
650 1 3 0.0 5.38988502 23.95272243 0.53827488
651 1 1 0.0 6.26135341 28.6723125 15.27728774
652 1 2 0.0 6.4175007 29.2822894 14.5935699
653 1 2 0.0 7.7937717 26.7489313 1.3558818
654 1 2 0.0 6.8949478 27.8040724 2.0864948
655 1 2 0.0 6.3274484 26.3785275 1.7653649
656 1 3 0.0 6.96172243 28.59211498 16.45272512
657 1 1 0.0 15.27728774 28.6723125 6.26135341
658 1 2 0.0 14.5935699 29.2822894 6.4175007
659 1 2 0.0 1.3558818 26.7489313 7.7937717
660 1 2 0.0 2.0864948 27.8040724 6.8949478
661 1 2 0.0 1.7653649 26.3785275 6.3274484
662 1 3 0.0 16.45272512 28.59211498 6.96172243
663 1 4 0.0 0.0 29.73425 8.4955
664 1 1 0.0 15.27728774 22.3006875 10.72964659
665 1 2 0.0 14.5935699 21.6907106 10.5734993
666 1 3 0.0 16.45272512 22.38088502 10.02927757
667 1 4 0.0 0.0 21.23875 8.4955
668 1 1 0.0 5.3096875 18.70471226 6.26135341
669 1 2 0.0 4.6997106 19.3884301 6.4175007
670 1 2 0.0 7.2330687 32.6261182 7.7937717
671 1 2 0.0 6.1779276 31.8955052 6.8949478
672 1 2 0.0 7.6034725 32.2166351 6.3274484
673 1 3 0.0 5.38988502 17.52927488 6.96172243
674 1 4 0.0 4.24775 16.991 8.4955
675 1 1 0.0 1.71371226 28.6723125 10.72964659
676 1 2 0.0 2.3974301 29.2822894 10.5734993
677 1 2 0.0 15.6351182 26.7489313 9.1972283
678 1 2 0.0 14.9045052 27.8040724 10.0960522